38
Properties=species:S:1:pos:R:3 Geometry=T Step:=T 9=T pbc="F F F"
Au      -3.94949450      -1.96966669       0.00000000
Au      -3.94949456      -0.00000004      -1.96966668
Au      -3.94949455      -0.00000004       1.96966668
Au      -3.94949461       1.96966668       0.00000000
Au      -1.96966665      -3.94949448       0.00000000
Au      -0.00000001      -3.94949451      -1.96966665
Au      -0.00000001      -3.94949450       1.96966665
Au      -1.96966672      -0.00000004      -3.94949458
Au      -0.00000001      -1.96966672      -3.94949455
Au      -2.03488842      -2.03488845      -2.03488840
Au      -1.98849128      -0.00000005       0.00000000
Au      -0.00000002      -1.98849131       0.00000000
Au      -0.00000002      -0.00000005      -1.98849126
Au      -2.03488841      -2.03488844       2.03488840
Au      -1.96966671      -0.00000004       3.94949456
Au      -0.00000001      -1.96966671       3.94949453
Au      -0.00000002      -0.00000005       1.98849127
Au      -0.00000001       1.96966671      -3.94949465
Au      -2.03488849       2.03488842      -2.03488846
Au      -1.96966677       3.94949466       0.00000000
Au      -0.00000002       1.98849122       0.00000000
Au      -0.00000001       3.94949468      -1.96966677
Au      -2.03488848       2.03488842       2.03488847
Au      -0.00000001       1.96966670       3.94949464
Au      -0.00000001       3.94949467       1.96966677
Au       1.96966665      -3.94949453       0.00000000
Au       1.96966671      -0.00000004      -3.94949462
Au       2.03488841      -2.03488847      -2.03488843
Au       1.98849125      -0.00000005       0.00000000
Au       3.94949458      -1.96966674       0.00000000
Au       3.94949463      -0.00000004      -1.96966674
Au       2.03488840      -2.03488847       2.03488843
Au       1.96966670      -0.00000004       3.94949461
Au       3.94949462      -0.00000004       1.96966674
Au       2.03488848       2.03488845      -2.03488849
Au       1.96966677       3.94949470       0.00000000
Au       3.94949468       1.96966673       0.00000000
Au       2.03488847       2.03488845       2.03488849
