19
Properties=species:S:1:pos:R:3 Geometry=T Step:=T 32=T pbc="F F F"
Ag      -0.15795934      -0.00000000       3.49097672
Ag       0.00263071      -3.94024004      -0.44429013
Ag      -3.93489706       0.00000000      -0.60536885
Ag       0.00277795      -0.00000000      -0.44550183
Ag       3.93886505       0.00000000      -0.28542319
Ag       0.00263071       3.94024004      -0.44429013
Ag       0.16078044       0.00000000      -4.38160060
Ag      -2.01191766      -2.01612735      -0.52742992
Ag       2.01684314      -2.01597692      -0.36391008
Ag      -2.01191766       2.01612735      -0.52742992
Ag       2.01684314       2.01597692      -0.36391008
Ag      -2.09389001      -0.00000000       1.48644868
Ag       1.93506417      -0.00000000       1.65098089
Ag      -1.93027083       0.00000000      -2.54062121
Ag       2.09817523       0.00000000      -2.37812814
Ag      -0.07963447      -2.01564783       1.56876461
Ag      -0.07963447       2.01564783       1.56876461
Ag       0.08402473      -2.01630277      -2.45912218
Ag       0.08402473       2.01630277      -2.45912218
