19
Properties=species:S:1:pos:R:3 Geometry=T Step:=T 23=T pbc="F F F"
Au      -0.11169787      -0.00000003       4.00723350
Au       0.00116148      -3.86823546       0.14005874
Au      -3.86622764      -0.00000003       0.02810824
Au       0.00044285      -0.00000007       0.14042743
Au       3.86725506      -0.00000003       0.25134118
Au       0.00116148       3.86823539       0.14005874
Au       0.11138868      -0.00000002      -3.72699995
Au      -1.98923265      -1.99084234       0.08298898
Au       1.99036777      -1.99030492       0.19788779
Au      -1.98923265       1.99084227       0.08298898
Au       1.99036777       1.99030486       0.19788779
Au      -2.04717803      -0.00000001       2.07264672
Au       1.93286745      -0.00000001       2.18810325
Au      -1.93186692      -0.00000000      -1.90698770
Au       2.04751908      -0.00000000      -1.79248028
Au      -0.05697932      -1.99069671       2.13041736
Au      -0.05697932       1.99069664       2.13041736
Au       0.05788987      -1.99056592      -1.84967086
Au       0.05788987       1.99056586      -1.84967086
