   20
Geometry Step: 11
   Ag      1.02894547      1.02894547      1.02894548     11.03464510
   Ag     -1.02894550     -1.02894550      1.02894549     11.03464510
   Ag     -1.02894550      1.02894547     -1.02894549     11.03464510
   Ag      1.02894547     -1.02894550     -1.02894549     11.03464510
   Ag      3.05009537      1.01271293     -1.01271294     11.00807170
   Ag     -3.05009540     -1.01271295     -1.01271294     11.00807170
   Ag     -1.01271295      3.05009537      1.01271293     11.00807170
   Ag      1.01271293     -3.05009539      1.01271294     11.00807170
   Ag     -3.05009539      1.01271293      1.01271294     11.00807170
   Ag      3.05009537     -1.01271295      1.01271293     11.00807170
   Ag     -1.01271295     -3.05009540     -1.01271294     11.00807170
   Ag      1.01271293      3.05009537     -1.01271294     11.00807170
   Ag     -1.01271295     -1.01271295     -3.05009538     11.00807170
   Ag      1.01271293      1.01271293     -3.05009538     11.00807170
   Ag      1.01271293     -1.01271295      3.05009538     11.00807170
   Ag     -1.01271295      1.01271293      3.05009538     11.00807170
   Ag      3.01576395      3.01576395     -3.01576396     10.94113979
   Ag     -3.01576397     -3.01576397     -3.01576396     10.94113979
   Ag     -3.01576396      3.01576395      3.01576396     10.94113979
   Ag      3.01576395     -3.01576396      3.01576396     10.94113979
