55
Properties=species:S:1:pos:R:3 Geometry=T Step:=T 8=T pbc="F F F"
Ag      -0.00000001      -0.00000001      -0.00000001
Ag       0.00000001       1.42478078       2.30536092
Ag       0.00000001       1.42478087      -2.30536103
Ag       0.00000001      -1.42478086       2.30536098
Ag       0.00000001      -1.42478095      -2.30536109
Ag       1.42478078       2.30536092       0.00000001
Ag      -1.42478086       2.30536098       0.00000001
Ag       1.42478087      -2.30536103       0.00000001
Ag      -1.42478095      -2.30536109       0.00000001
Ag       2.30536092       0.00000001       1.42478078
Ag       2.30536098       0.00000001      -1.42478086
Ag      -2.30536103       0.00000001       1.42478087
Ag      -2.30536109       0.00000001      -1.42478095
Au      -4.57743564       0.00000010      -2.82900752
Au       0.00000010       2.82900730       4.57743551
Au       0.00000010       2.82900749      -4.57743555
Au       0.00000010      -2.82900732       4.57743559
Au       0.00000010      -2.82900752      -4.57743564
Au       2.82900730       4.57743551       0.00000010
Au      -2.82900732       4.57743559       0.00000010
Au       2.82900749      -4.57743555       0.00000010
Au      -2.82900752      -4.57743564       0.00000010
Au       4.57743551       0.00000010       2.82900730
Au       4.57743559       0.00000010      -2.82900732
Au      -4.57743555       0.00000010       2.82900749
Au      -0.00000001       4.66382800       0.00000010
Au      -0.00000001      -4.66382813       0.00000010
Au      -4.66382813       0.00000010      -0.00000001
Au       4.66382800       0.00000010      -0.00000001
Au       0.00000010      -0.00000001      -4.66382813
Au       0.00000010      -0.00000001       4.66382800
Au       1.44118990      -3.77309205       2.33189789
Au      -1.44118986      -3.77309209       2.33189793
Au       1.44118991      -3.77309218      -2.33189780
Au      -1.44118987      -3.77309221      -2.33189784
Au       3.77309214      -2.33189779      -1.44118979
Au       3.77309211      -2.33189775       1.44118982
Au      -3.77309221      -2.33189784      -1.44118987
Au      -3.77309218      -2.33189780       1.44118991
Au       1.44118982       3.77309211      -2.33189775
Au       1.44118981       3.77309198       2.33189783
Au      -1.44118979       3.77309214      -2.33189779
Au      -1.44118978       3.77309201       2.33189787
Au      -2.33189780       1.44118991      -3.77309218
Au       2.33189789       1.44118990      -3.77309205
Au      -2.33189784      -1.44118987      -3.77309221
Au       2.33189793      -1.44118986      -3.77309209
Au      -3.77309205       2.33189789       1.44118990
Au      -3.77309209       2.33189793      -1.44118986
Au      -2.33189779      -1.44118979       3.77309214
Au       2.33189787      -1.44118978       3.77309201
Au       2.33189783       1.44118981       3.77309198
Au      -2.33189775       1.44118982       3.77309211
Au       3.77309201       2.33189787      -1.44118978
Au       3.77309198       2.33189783       1.44118981
