55
Properties=species:S:1:pos:R:3 Geometry=T Step:=T 7=T pbc="F F F"
Au      -0.00000005      -0.00000005      -0.00000005
Au      -0.00000002       1.44063510       2.33100115
Au      -0.00000001       1.44063513      -2.33100120
Au      -0.00000002      -1.44063518       2.33100114
Au      -0.00000001      -1.44063521      -2.33100119
Au       1.44063510       2.33100115      -0.00000002
Au      -1.44063518       2.33100114      -0.00000002
Au       1.44063513      -2.33100120      -0.00000001
Au      -1.44063521      -2.33100119      -0.00000001
Au       2.33100115      -0.00000002       1.44063510
Au       2.33100114      -0.00000002      -1.44063518
Au      -2.33100120      -0.00000001       1.44063513
Au      -2.33100119      -0.00000001      -1.44063521
Ag      -4.65388045       0.00000005      -2.87624998
Ag       0.00000005       2.87624989       4.65388058
Ag       0.00000005       2.87624994      -4.65388050
Ag       0.00000005      -2.87624993       4.65388053
Ag       0.00000005      -2.87624998      -4.65388045
Ag       2.87624989       4.65388058       0.00000005
Ag      -2.87624993       4.65388053       0.00000005
Ag       2.87624994      -4.65388050       0.00000005
Ag      -2.87624998      -4.65388045       0.00000005
Ag       4.65388058       0.00000005       2.87624989
Ag       4.65388053       0.00000005      -2.87624993
Ag      -4.65388050       0.00000005       2.87624994
Ag      -0.00000004       4.71818568       0.00000006
Ag      -0.00000004      -4.71818565       0.00000006
Ag      -4.71818565       0.00000006      -0.00000004
Ag       4.71818568       0.00000006      -0.00000004
Ag       0.00000006      -0.00000004      -4.71818565
Ag       0.00000006      -0.00000004       4.71818568
Ag       1.45798286      -3.81705886       2.35907085
Ag      -1.45798288      -3.81705884       2.35907086
Ag       1.45798285      -3.81705890      -2.35907078
Ag      -1.45798286      -3.81705887      -2.35907079
Ag       3.81705887      -2.35907083      -1.45798284
Ag       3.81705890      -2.35907082       1.45798282
Ag      -3.81705887      -2.35907079      -1.45798286
Ag      -3.81705890      -2.35907078       1.45798285
Ag       1.45798282       3.81705890      -2.35907082
Ag       1.45798284       3.81705886       2.35907088
Ag      -1.45798284       3.81705887      -2.35907083
Ag      -1.45798286       3.81705883       2.35907089
Ag      -2.35907078       1.45798285      -3.81705890
Ag       2.35907085       1.45798286      -3.81705886
Ag      -2.35907079      -1.45798286      -3.81705887
Ag       2.35907086      -1.45798288      -3.81705884
Ag      -3.81705886       2.35907085       1.45798286
Ag      -3.81705884       2.35907086      -1.45798288
Ag      -2.35907083      -1.45798284       3.81705887
Ag       2.35907089      -1.45798286       3.81705883
Ag       2.35907088       1.45798284       3.81705886
Ag      -2.35907082       1.45798282       3.81705890
Ag       3.81705883       2.35907089      -1.45798286
Ag       3.81705886       2.35907088       1.45798284
