20
Properties=species:S:1:pos:R:3 Geometry=T Step:=T 18=T pbc="F F F"
Ag       1.02582850       0.99658806       1.02582472
Ag      -1.02582850      -0.99658805       1.02582472
Ag      -1.02582854       0.99658750      -1.02582808
Ag       1.02582854      -0.99658750      -1.02582808
Ag       3.01070190       1.01849823      -0.98878201
Ag      -3.01070190      -1.01849823      -0.98878201
Au      -0.97077987       2.92217643       0.97077859
Au       0.97077987      -2.92217643       0.97077859
Ag      -3.01069768       1.01850465       0.98878054
Ag       3.01069768      -1.01850465       0.98878054
Au      -0.97077271      -2.92217924      -0.97078017
Au       0.97077271       2.92217924      -0.97078017
Ag      -0.98878004      -1.01850474      -3.01069637
Ag       0.98878004       1.01850474      -3.01069637
Ag       0.98877867      -1.01850367       3.01069530
Ag      -0.98877867       1.01850367       3.01069530
Au       2.87568660       2.95385826      -2.87568004
Au      -2.87568660      -2.95385826      -2.87568004
Au      -2.87568497       2.95385652       2.87568757
Au       2.87568497      -2.95385652       2.87568757
