20
Properties=species:S:1:pos:R:3 Geometry=T Step:=T 24=T pbc="F F F"
Au       0.99780392       1.00314158       1.00313620
Ag      -0.98725728      -1.01411065       1.01411204
Ag      -0.98725858       1.01411880      -1.01411612
Au       0.99781663      -1.00314727      -1.00315628
Ag       2.95039520       0.99888455      -0.99888383
Ag      -2.96227434      -1.00499646      -1.00499617
Ag      -0.94788148       3.00607357       1.00878116
Au       0.98056009      -2.96646422       0.97920361
Ag      -2.96227427       1.00499690       1.00499744
Ag       2.95038632      -0.99888886       0.99888266
Ag      -0.94787239      -3.00607441      -1.00876962
Au       0.98056328       2.96647189      -0.97921218
Ag      -0.94788353      -1.00877914      -3.00607256
Au       0.98056265       0.97921405      -2.96647028
Au       0.98055380      -0.97920346       2.96647033
Ag      -0.94787326       1.00877075       3.00607532
Ag       2.85409948       2.97147609      -2.97147396
Ag      -2.91781329      -2.97405877      -2.97404576
Ag      -2.91781231       2.97404700       2.97405928
Ag       2.85408877      -2.97147233       2.97147889
