20
Properties=species:S:1:pos:R:3 Geometry=T Step:=T 21=T pbc="F F F"
Ag       1.01463671       0.99778560       1.01463701
Ag      -1.02493814      -1.01483932       1.02493402
Ag      -1.01463694       0.99778672      -1.01463740
Ag       1.02493764      -1.01483763      -1.02493700
Ag       3.01345565       0.99949582      -1.00393184
Ag      -3.00104228      -1.02125652      -0.98665222
Ag      -1.00189543       2.99022503       1.00189581
Au       0.97055152      -2.93966817       0.97055019
Ag      -3.01345539       0.99949617       1.00393233
Ag       3.00103799      -1.02126280       0.98665022
Au      -0.97054395      -2.93967192      -0.97055187
Ag       1.00189585       2.99022504      -1.00189556
Ag      -0.98665027      -1.02126380      -3.00103634
Ag       1.00393204       0.99949527      -3.01345570
Ag       0.98664817      -1.02126398       3.00103674
Ag      -1.00393281       0.99949390       3.01345452
Ag       2.97083974       2.96722147      -2.97083975
Au      -2.87525871      -2.95703955      -2.87525241
Ag      -2.97083913       2.96722124       2.97084048
Au       2.87525785      -2.95703859       2.87525879
