20
Properties=species:S:1:pos:R:3 Geometry=T Step:=T 9=T pbc="F F F"
Ag      10.08966392      10.08966392      10.08966393
Ag       8.06014805       8.06014805      10.08966393
Ag       8.06014805      10.08966392       8.06014807
Ag      10.08966392       8.06014805       8.06014807
Ag      12.08047386      10.07634339       8.07346860
Ag       6.06933812       8.07346859       8.07346860
Ag       8.07346859      12.08047386      10.07634340
Ag      10.07634340       6.06933812      10.07634341
Ag       6.06933812      10.07634340      10.07634341
Ag      12.08047386       8.07346859      10.07634340
Ag       8.07346859       6.06933812       8.07346860
Ag      10.07634339      12.08047386       8.07346860
Ag       8.07346859       8.07346859       6.06933813
Ag      10.07634339      10.07634339       6.06933814
Ag      10.07634339       8.07346859      12.08047387
Ag       8.07346859      10.07634339      12.08047387
Ag      12.04420516      12.04420516       6.10560683
Ag       6.10560682       6.10560682       6.10560682
Ag       6.10560683      12.04420517      12.04420517
Ag      12.04420517       6.10560683      12.04420517
