20
Properties=species:S:1:pos:R:3 Geometry=T Step:=T 11=T pbc="F F F"
Au      10.08196145      10.08196145      10.08196146
Au       8.06785052       8.06785052      10.08196147
Au       8.06785052      10.08196145       8.06785054
Au      10.08196145       8.06785052       8.06785054
Au      12.03638578      10.04863975       8.10117224
Au       6.11342620       8.10117223       8.10117224
Au       8.10117223      12.03638578      10.04863976
Au      10.04863975       6.11342620      10.04863976
Au       6.11342620      10.04863975      10.04863976
Au      12.03638578       8.10117223      10.04863976
Au       8.10117223       6.11342620       8.10117224
Au      10.04863975      12.03638578       8.10117224
Au       8.10117223       8.10117223       6.11342621
Au      10.04863975      10.04863975       6.11342622
Au      10.04863975       8.10117223      12.03638578
Au       8.10117223      10.04863975      12.03638578
Au      11.96058767      11.96058767       6.18922433
Au       6.18922432       6.18922432       6.18922432
Au       6.18922432      11.96058767      11.96058768
Au      11.96058767       6.18922432      11.96058768
